% Model:              pnp.mph
% Version:            COMSOL 5.1.0.234
% Date:               May 30 2023, 15:20
% Table:              Table 2 - Point Evaluation 1 (p)
% Time                   Dependent variable p, Point: 1Dependent variable p, Point: 2
0.9000100000000001       3.1660428156245115       0.4842161195616494
0.90002                  3.166066479693679        0.4842192997565374
0.9000300000000001       3.166090143766034        0.48422247995185735
0.9000400000000001       3.1661138078415743       0.4842256601476091
0.9000500000000001       3.166137471920301        0.48422884034379277
0.9000600000000001       3.1661611360022146       0.4842320205404083
0.90007                  3.1661848000873145       0.48423520073745574
0.9000800000000001       3.1662084641756016       0.48423838093493515
0.9000900000000001       3.1662321282670747       0.48424156113284633
0.9001000000000001       3.166255792361734        0.4842447413311895
0.9001100000000001       3.16627945645958         0.4842479215299645
0.90012                  3.1663031205606127       0.48425110172917135
0.9001300000000001       3.166326784664832        0.4842542819288101
0.90014                  3.1663504487722376       0.4842574621288808
0.9001500000000001       3.1663741128828296       0.4842606423293834
0.9001600000000001       3.1663977769966083       0.4842638225303178
0.90017                  3.166421441113573        0.4842670027316841
0.9001800000000001       3.166445105233725        0.4842701829334824
0.90019                  3.166468769357063        0.4842733631357125
0.9002000000000001       3.166492433483587        0.4842765433383745
0.9002100000000001       3.166516097613298        0.48427972354146837
0.90022                  3.1665397617461957       0.4842829037449941
0.9002300000000001       3.16656342588228         0.48428608394895173
0.90024                  3.1665870900215505       0.4842892641533413
0.9002500000000001       3.166610754164007        0.48429244435816277
0.9002600000000001       3.1666344183096506       0.484295624563416
0.9002700000000001       3.166658082458481        0.4842988047691013
0.9002800000000001       3.1666817466104975       0.48430198497521837
0.90029                  3.1667054107657004       0.48430516518176725
0.9003000000000001       3.1667290749240897       0.4843083453887482
0.90031                  3.1667527390856662       0.48431152559616086
0.9003200000000001       3.1667764032504286       0.48431470580400554
0.9003300000000001       3.166800067418377        0.48431788601228204
0.90034                  3.1668237315895125       0.48432106622099047
0.9003500000000001       3.166847395763835        0.4843242464301308
0.90036                  3.1668710599413425       0.48432742663970296
0.9003700000000001       3.166894724122038        0.48433060684970697
0.9003800000000001       3.166918388305919        0.4843337870601429
0.90039                  3.166942052492987        0.4843369672710108
0.9004000000000001       3.166965716683242        0.4843401474823105
0.90041                  3.1669893808766822       0.4843433276940421
0.9004200000000001       3.16701304507331         0.4843465079062057
0.9004300000000001       3.1670367092731233       0.484349688118801
0.90044                  3.1670603734761236       0.48435286833182833
0.9004500000000001       3.1670840376823106       0.4843560485452875
0.90046                  3.167107701891684        0.48435922875917853
0.9004700000000001       3.1671313661042437       0.48436240897350147
0.9004800000000001       3.16715503031999         0.4843655891882563
0.9004900000000001       3.167178694538923        0.48436876940344303
0.9005000000000001       3.1672023587610423       0.48437194961906166
0.90051                  3.167226022986348        0.4843751298351121
0.9005200000000001       3.16724968721484         0.48437831005159454
0.90053                  3.167273351446519        0.4843814902685088
0.9005400000000001       3.1672970156813847       0.48438467048585493
0.9005500000000001       3.1673206799194364       0.4843878507036329
0.90056                  3.1673443441606746       0.4843910309218428
0.9005700000000001       3.1673680084050986       0.48439421114048464
0.90058                  3.1673916726527103       0.48439739135955834
0.9005900000000001       3.1674153369035083       0.484400571579064
0.9006000000000001       3.167439001157492        0.48440375179900147
0.90061                  3.167462665414663        0.4844069320193708
0.9006200000000001       3.16748632967502         0.484410112240172
0.90063                  3.1675099939385634       0.4844132924614051
0.9006400000000001       3.167533658205294        0.4844164726830702
0.9006500000000001       3.1675573224752105       0.48441965290516703
0.9006600000000001       3.1675809867483142       0.4844228331276959
0.9006700000000001       3.167604651024604        0.48442601335065655
0.90068                  3.1676283153040803       0.4844291935740491
0.9006900000000001       3.1676519795867426       0.4844323737978736
0.9007000000000001       3.1676756438725917       0.48443555402212995
0.9007100000000001       3.167699308161627        0.48443873424681816
0.9007200000000001       3.1677229724538494       0.48444191447193824
0.90073                  3.167746636749258        0.48444509469749025
0.9007400000000001       3.167770301047853        0.4844482749234742
0.90075                  3.1677939653496345       0.4844514551498899
0.9007600000000001       3.167817629654603        0.48445463537673766
0.9007700000000001       3.167841293962758        0.4844578156040172
0.90078                  3.167864958274098        0.4844609958317286
0.9007900000000001       3.1678886225886256       0.4844641760598719
0.9008                   3.1679122869063394       0.4844673562884471
0.9008100000000001       3.1679359512272405       0.4844705365174542
0.9008200000000001       3.167959615551328        0.4844737167468932
0.90083                  3.167983279878601        0.48447689697676405
0.9008400000000001       3.168006944209061        0.4844800772070669
0.90085                  3.1680306085427072       0.4844832574378015
0.9008600000000001       3.168054272879541        0.48448643766896804
0.9008700000000001       3.16807793721956         0.48448961790056644
0.9008800000000001       3.1681016015627663       0.48449279813259677
0.9008900000000001       3.1681252659091585       0.4844959783650589
0.9009                   3.168148930258737        0.484499158597953
0.9009100000000001       3.1681725946115034       0.484502338831279
0.90092                  3.168196258967455        0.48450551906503686
0.9009300000000001       3.1682199233265935       0.4845086992992266
0.9009400000000001       3.1682435876889183       0.4845118795338483
0.90095                  3.1682672520544295       0.48451505976890175
0.9009600000000001       3.1682909164231283       0.4845182400043872
0.90097                  3.1683145807950126       0.4845214202403045
0.9009800000000001       3.168338245170083        0.48452460047665363
0.9009900000000001       3.1683619095483406       0.4845277807134347
0.901                    3.1683855739297844       0.4845309609506477
0.9010100000000001       3.168409238314415        0.4845341411882925
0.90102                  3.1684329027022318       0.48453732142636924
0.9010300000000001       3.168456567093236        0.48454050166487783
0.9010400000000001       3.1684802314874254       0.4845436819038183
0.9010500000000001       3.1685038958848013       0.48454686214319076
0.9010600000000001       3.1685275602853644       0.48455004238299504
0.90107                  3.1685512246891134       0.4845532226232312
0.9010800000000001       3.1685748890960497       0.4845564028638993
0.9010900000000001       3.168598553506172        0.48455958310499914
0.9011000000000001       3.1686222179194807       0.484562763346531
0.9011100000000001       3.168645882335976        0.4845659435884947
0.90112                  3.1686695467556576       0.4845691238308903
0.9011300000000001       3.1686932111785264       0.48457230407371776
0.90114                  3.168716875604581        0.4845754843169771
0.9011500000000001       3.1687405400338218       0.4845786645606684
0.9011600000000001       3.16876420446625         0.48458184480479155
0.90117                  3.168787868901864        0.48458502504934653
0.9011800000000001       3.1688115333406652       0.4845882052943335
0.90119                  3.1688351977826525       0.48459138553975234
0.9012000000000001       3.1688588622278258       0.484594565785603
0.9012100000000001       3.168882526676186        0.48459774603188555
0.90122                  3.1689061911277325       0.4846009262786
0.9012300000000001       3.168929855582466        0.4846041065257464
0.90124                  3.168953520040386        0.48460728677332465
0.9012500000000001       3.1689771845014922       0.4846104670213348
0.9012600000000001       3.1690008489657844       0.48461364726977685
0.9012700000000001       3.169024513433264        0.48461682751865076
0.9012800000000001       3.1690481779039295       0.4846200077679565
0.90129                  3.169071842377782        0.48462318801769416
0.9013000000000001       3.1690955068548208       0.48462636826786376
0.9013100000000001       3.1691191713350455       0.4846295485184652
0.9013200000000001       3.1691428358184575       0.4846327287694986
0.9013300000000001       3.1691665003050553       0.4846359090209638
0.90134                  3.1691901647948404       0.48463908927286087
0.9013500000000001       3.169213829287811        0.48464226952518985
0.90136                  3.1692374937839687       0.4846454497779507
0.9013700000000001       3.1692611582833132       0.48464863003114356
0.9013800000000001       3.1692848227858437       0.4846518102847682
0.90139                  3.169308487291561        0.4846549905388247
0.9014000000000001       3.1693321518004645       0.4846581707933132
0.90141                  3.1693558163125544       0.48466135104823355
0.9014200000000001       3.169379480827831        0.48466453130358567
0.9014300000000001       3.169403145346294        0.48466771155936983
0.90144                  3.1694268098679435       0.48467089181558576
0.9014500000000001       3.1694504743927796       0.4846740720722337
0.90146                  3.169474138920802        0.4846772523293134
0.9014700000000001       3.1694978034520114       0.4846804325868251
0.9014800000000001       3.1695214679864065       0.48468361284476863
0.9014900000000001       3.169545132523989        0.484686793103144
0.9015000000000001       3.1695687970647572       0.4846899733619514
0.90151                  3.1695924616087123       0.48469315362119053
0.9015200000000001       3.1696161261558538       0.4846963338808616
0.90153                  3.169639790706182        0.48469951414096457
0.9015400000000001       3.1696634552596965       0.48470269440149943
0.9015500000000001       3.1696871198163974       0.4847058746624662
0.90156                  3.1697107843762846       0.4847090549238648
0.9015700000000001       3.1697344489393586       0.48471223518569534
0.90158                  3.169758113505619        0.4847154154479577
0.9015900000000001       3.169781778075066        0.484718595710652
0.9016000000000001       3.1698054426476996       0.48472177597377814
0.90161                  3.1698291072235194       0.48472495623733625
0.9016200000000001       3.1698527718025256       0.48472813650132623
0.90163                  3.1698764363847185       0.484731316765748
0.9016400000000001       3.1699001009700982       0.4847344970306018
0.9016500000000001       3.1699237655586643       0.4847376772958874
0.9016600000000001       3.1699474301504162       0.48474085756160484
0.9016700000000001       3.1699710947453554       0.4847440378277542
0.90168                  3.1699947593434805       0.4847472180943355
0.9016900000000001       3.1700184239447924       0.4847503983613487
0.9017000000000001       3.170042088549291        0.48475357862879376
0.9017100000000001       3.170065753156976        0.4847567588966707
0.9017200000000001       3.170089417767847        0.48475993916497945
0.90173                  3.1701130823819046       0.4847631194337202
0.9017400000000001       3.170136746999149        0.48476629970289276
0.90175                  3.1701604116195803       0.48476947997249725
0.9017600000000001       3.170184076243198        0.4847726602425337
0.9017700000000001       3.170207740870002        0.4847758405130019
0.90178                  3.1702314054999916       0.484779020783902
0.9017900000000001       3.170255070133168        0.48478220105523406
0.9018                   3.170278734769531        0.48478538132699794
0.9018100000000001       3.1703023994090818       0.4847885615991938
0.9018200000000001       3.170326064051818        0.4847917418718215
0.90183                  3.1703497286977402       0.48479492214488107
0.9018400000000001       3.1703733933468494       0.4847981024183725
0.90185                  3.170397057999145        0.48480128269229583
0.9018600000000001       3.1704207226546277       0.48480446296665114
0.9018700000000001       3.1704443873132964       0.48480764324143827
0.9018800000000001       3.1704680519751514       0.48481082351665733
0.9018900000000001       3.170491716640193        0.48481400379230816
0.9019                   3.1705153813084213       0.4848171840683909
0.9019100000000001       3.170539045979836        0.4848203643449056
0.90192                  3.170562710654437        0.4848235446218522
0.9019300000000001       3.1705863753322245       0.4848267248992307
0.9019400000000001       3.170610040013199        0.484829905177041
0.90195                  3.1706337046973596       0.4848330854552832
0.9019600000000001       3.170657369384707        0.48483626573395733
0.90197                  3.1706810340752405       0.48483944601306334
0.9019800000000001       3.1707046987689607       0.4848426262926012
0.9019900000000001       3.170728363465867        0.4848458065725709
0.902                    3.17075202816596         0.4848489868529726
0.9020100000000001       3.17077569286924         0.4848521671338062
0.90202                  3.1707993575757065       0.4848553474150716
0.9020300000000001       3.170823022285359        0.48485852769676896
0.9020400000000001       3.170846686998198        0.4848617079788981
0.90205                  3.170870351714223        0.4848648882614592
0.9020600000000001       3.1708940164334356       0.48486806854445225
0.90207                  3.170917681155834        0.48487124882787713
0.9020800000000001       3.170941345881419        0.48487442911173384
0.9020900000000001       3.1709650106101903       0.4848776093960225
0.9021000000000001       3.170988675342149        0.48488078968074305
0.9021100000000001       3.171012340077293        0.4848839699658954
0.90212                  3.1710360048156243       0.4848871502514797
0.9021300000000001       3.1710596695571414       0.4848903305374959
0.90214                  3.171083334301846        0.484893510823944
0.9021500000000001       3.1711069990497367       0.48489669111082395
0.9021600000000001       3.171130663800813        0.4848998713981358
0.90217                  3.1711543285550765       0.4849030516858795
0.9021800000000001       3.171177993312527        0.4849062319740552
0.90219                  3.1712016580731635       0.48490941226266265
0.9022000000000001       3.171225322836986        0.4849125925517021
0.9022100000000001       3.1712489876039958       0.4849157728411734
0.90222                  3.1712726523741916       0.4849189531310765
0.9022300000000001       3.1712963171475743       0.48492213342141155
0.90224                  3.171319981924143        0.4849253137121785
0.9022500000000001       3.1713436467038982       0.4849284940033774
0.9022600000000001       3.1713673114868404       0.4849316742950081
0.9022700000000001       3.171390976272969        0.48493485458707075
0.9022800000000001       3.1714146410622837       0.4849380348795652
0.90229                  3.1714383058547853       0.48494121517249156
0.9023000000000001       3.1714619706504728       0.48494439546584983
0.9023100000000001       3.171485635449347        0.48494757575964004
0.9023200000000001       3.1715093002514085       0.48495075605386206
0.9023300000000001       3.1715329650566555       0.48495393634851597
0.90234                  3.1715566298650892       0.48495711664360175
0.9023500000000001       3.1715802946767093       0.4849602969391195
0.90236                  3.171603959491516        0.4849634772350691
0.9023700000000001       3.17162762430951         0.48496665753145063
0.9023800000000001       3.1716512891306894       0.48496983782826397
0.90239                  3.1716749539550557       0.4849730181255092
0.9024000000000001       3.171698618782609        0.48497619842318634
0.90241                  3.171722283613348        0.4849793787212954
0.9024200000000001       3.171745948447274        0.48498255901983633
0.9024300000000001       3.1717696132843862       0.48498573931880906
0.90244                  3.171793278124685        0.4849889196182137
0.9024500000000001       3.1718169429681704       0.4849920999180504
0.90246                  3.1718406078148416       0.48499528021831884
0.9024700000000001       3.1718642726647004       0.4849984605190192
0.9024800000000001       3.171887937517745        0.4850016408201514
0.9024900000000001       3.171911602373976        0.48500482112171556
0.9025000000000001       3.1719352672333936       0.48500800142371153
0.90251                  3.171958932095998        0.48501118172613944
0.9025200000000001       3.171982596961789        0.4850143620289992
0.90253                  3.172006261830766        0.4850175423322909
0.9025400000000001       3.17202992670293         0.4850207226360145
0.9025500000000001       3.17205359157828         0.4850239029401699
0.90256                  3.172077256456817        0.48502708324475724
0.9025700000000001       3.1721009213385396       0.48503026354977646
0.90258                  3.172124586223449        0.4850334438552275
0.9025900000000001       3.1721482511115457       0.4850366241611106
0.9026000000000001       3.1721719160028283       0.4850398044674255
0.90261                  3.1721955808972973       0.4850429847741722
0.9026200000000001       3.172219245794953        0.4850461650813509
0.90263                  3.172242910695795        0.48504934538896144
0.9026400000000001       3.1722665755998243       0.4850525256970038
0.9026500000000001       3.172290240507039        0.48505570600547815
0.9026600000000001       3.1723139054174405       0.4850588863143844
0.9026700000000001       3.1723375703310284       0.4850620666237224
0.90268                  3.172361235247803        0.4850652469334924
0.9026900000000001       3.172384900167765        0.48506842724369437
0.9027000000000001       3.1724085650909117       0.4850716075543281
0.9027100000000001       3.172432230017246        0.4850747878653937
0.9027200000000001       3.1724558949467663       0.4850779681768912
0.90273                  3.1724795598794735       0.48508114848882056
0.9027400000000001       3.1725032248153675       0.48508432880118196
0.90275                  3.1725268897544474       0.4850875091139751
0.9027600000000001       3.1725505546967137       0.48509068942720024
0.9027700000000001       3.1725742196421667       0.48509386974085716
0.90278                  3.172597884590806        0.485097050054946
0.9027900000000001       3.172621549542632        0.48510023036946676
0.9028                   3.1726452144976447       0.4851034106844193
0.9028100000000001       3.1726688794558435       0.48510659099980386
0.9028200000000001       3.172692544417229        0.4851097713156203
0.90283                  3.172716209381801        0.48511295163186857
0.9028400000000001       3.1727398743495594       0.48511613194854875
0.90285                  3.1727635393205045       0.4851193122656608
0.9028600000000001       3.172787204294636        0.4851224925832047
0.9028700000000001       3.1728108692719537       0.4851256729011806
0.9028800000000001       3.172834534252458        0.48512885321958826
0.9028900000000001       3.172858199236149        0.4851320335384279
0.9029                   3.1728818642230263       0.48513521385769937
0.9029100000000001       3.1729055292130908       0.48513839417740273
0.9029200000000001       3.172929194206341        0.485141574497538
0.9029300000000001       3.172952859202778        0.4851447548181052
0.9029400000000001       3.1729765242024013       0.48514793513910426
0.90295                  3.173000189205211        0.48515111546053513
0.9029600000000001       3.1730238542112077       0.48515429578239794
0.90297                  3.1730475192203906       0.4851574761046927
0.9029800000000001       3.1730711842327595       0.48516065642741923
0.9029900000000001       3.1730948492483155       0.4851638367505777
0.903                    3.173118514267058        0.48516701707416804
0.9030100000000001       3.1731421792889867       0.4851701973981904
0.90302                  3.173165844314102        0.48517337772264446
0.9030300000000001       3.173189509342404        0.4851765580475305
0.9030400000000001       3.1732131743738923       0.4851797383728484
0.90305                  3.1732368394085664       0.48518291869859814
0.9030600000000001       3.1732605044464286       0.48518609902477994
0.90307                  3.1732841694874763       0.4851892793513935
0.9030800000000001       3.17330783453171         0.48519245967843894
0.9030900000000001       3.173331499579131        0.4851956400059163
0.9031000000000001       3.1733551646297387       0.4851988203338255
0.9031100000000001       3.173378829683532        0.4852020006621666
0.90312                  3.1734024947405124       0.4852051809909397
0.9031300000000001       3.173426159800679        0.48520836132014455
0.90314                  3.173449824864032        0.4852115416497813
0.9031500000000001       3.173473489930572        0.48521472197985
0.9031600000000001       3.173497155000298        0.48521790231035056
0.90317                  3.173520820073211        0.485221082641283
0.9031800000000001       3.1735444851493098       0.48522426297264737
0.90319                  3.1735681502285957       0.48522744330444356
0.9032000000000001       3.173591815311068        0.48523062363667163
0.9032100000000001       3.1736154803967267       0.48523380396933163
0.90322                  3.1736391454855717       0.4852369843024235
0.9032300000000001       3.1736628105776035       0.48524016463594727
0.90324                  3.173686475672821        0.48524334496990296
0.9032500000000001       3.1737101407712265       0.4852465253042905
0.9032600000000001       3.1737338058728173       0.4852497056391099
0.9032700000000001       3.1737574709775953       0.4852528859743612
0.9032800000000001       3.1737811360855592       0.4852560663100444
0.90329                  3.17380480119671         0.4852592466461595
0.9033000000000001       3.173828466311047        0.4852624269827065
0.9033100000000001       3.1738521314285704       0.4852656073196854
0.9033200000000001       3.173875796549281        0.48526878765709613
0.9033300000000001       3.173899461673177        0.48527196799493877
0.90334                  3.1739231268002603       0.4852751483332133
0.9033500000000001       3.1739467919305295       0.48527832867191967
0.90336                  3.1739704570639855       0.48528150901105793
0.9033700000000001       3.1739941222006287       0.4852846893506282
0.9033800000000001       3.1740177873404574       0.4852878696906302
0.90339                  3.1740414524834732       0.48529105003106415
0.9034000000000001       3.1740651176296746       0.48529423037193004
0.90341                  3.174088782779063        0.4852974107132278
0.9034200000000001       3.1741124479316385       0.48530059105495743
0.9034300000000001       3.1741361130874          0.4853037713971189
0.90344                  3.1741597782463478       0.48530695173971233
0.9034500000000001       3.1741834434084826       0.48531013208273754
0.90346                  3.1742071085738033       0.4853133124261947
0.9034700000000001       3.174230773742311        0.48531649277008376
0.9034800000000001       3.174254438914005        0.4853196731144047
0.9034900000000001       3.174278104088885        0.4853228534591576
0.9035000000000001       3.174301769266952        0.48532603380434236
0.90351                  3.174325434448205        0.4853292141499589
0.9035200000000001       3.1743490996326456       0.4853323944960074
0.90353                  3.174372764820272        0.48533557484248774
0.9035400000000001       3.1743964300110847       0.48533875518940006
0.9035500000000001       3.174420095205084        0.4853419355367442
0.90356                  3.1744437604022697       0.4853451158845202
0.9035700000000001       3.174467425602643        0.4853482962327281
0.90358                  3.174491090806202        0.48535147658136796
0.9035900000000001       3.1745147560129467       0.48535465693043967
0.9036000000000001       3.1745384212228784       0.4853578372799432
0.90361                  3.1745620864359965       0.48536101762987865
0.9036200000000001       3.1745857516523017       0.4853641979802461
0.90363                  3.1746094168717933       0.48536737833104526
0.9036400000000001       3.1746330820944717       0.4853705586822765
0.9036500000000001       3.174656747320336        0.48537373903393943
0.90366                  3.1746804125493866       0.4853769193860344
0.9036700000000001       3.1747040777816236       0.48538009973856117
0.90368                  3.1747277430170473       0.4853832800915199
0.9036900000000001       3.174751408255658        0.4853864604449104
0.9037000000000001       3.1747750734974547       0.48538964079873287
0.9037100000000001       3.1747987387424375       0.48539282115298726
0.9037200000000001       3.1748224039906074       0.4853960015076735
0.90373                  3.1748460692419633       0.4853991818627916
0.9037400000000001       3.174869734496507        0.4854023622183416
0.90375                  3.174893399754236        0.4854055425743235
0.9037600000000001       3.1749170650151517       0.4854087229307372
0.9037700000000001       3.174940730279254        0.48541190328758294
0.90378                  3.1749643955465423       0.4854150836448604
0.9037900000000001       3.174988060817018        0.4854182640025699
0.9038                   3.1750117260906796       0.4854214443607112
0.9038100000000001       3.1750353913675275       0.4854246247192845
0.9038200000000001       3.175059056647562        0.4854278050782896
0.90383                  3.175082721930783        0.48543098543772656
0.9038400000000001       3.175106387217191        0.48543416579759546
0.90385                  3.1751300525067854       0.48543734615789613
0.9038600000000001       3.175153717799566        0.48544052651862885
0.9038700000000001       3.1751773830955328       0.4854437068797934
0.9038800000000001       3.175201048394687        0.48544688724138985
0.9038900000000001       3.1752247136970273       0.48545006760341813
0.9039                   3.175248379002553        0.4854532479658783
0.9039100000000001       3.1752720443112668       0.4854564283287704
0.9039200000000001       3.1752957096231658       0.48545960869209437
0.9039300000000001       3.1753193749382524       0.4854627890558502
0.9039400000000001       3.175343040256525        0.48546596942003795
0.90395                  3.175366705577984        0.4854691497846576
0.9039600000000001       3.1753903709026297       0.48547233014970914
0.90397                  3.1754140362304613       0.4854755105151925
0.9039800000000001       3.1754377015614805       0.48547869088110784
0.9039900000000001       3.1754613668956853       0.48548187124745507
0.904                    3.1754850322330768       0.4854850516142341
0.9040100000000001       3.1755086975736555       0.48548823198144503
0.90402                  3.1755323629174197       0.4854914123490879
0.9040300000000001       3.1755560282643707       0.4854945927171626
0.9040400000000001       3.175579693614508        0.4854977730856692
0.90405                  3.1756033589678316       0.4855009534546077
0.9040600000000001       3.175627024324343        0.48550413382397817
0.90407                  3.1756506896840397       0.4855073141937804
0.9040800000000001       3.175674355046923        0.48551049456401457
0.9040900000000001       3.175698020412993        0.4855136749346806
0.9041000000000001       3.17572168578225         0.4855168553057786
0.9041100000000001       3.1757453511546925       0.4855200356773084
0.90412                  3.1757690165303223       0.4855232160492701
0.9041300000000001       3.175792681909138        0.4855263964216638
0.90414                  3.1758163472911405       0.4855295767944892
0.9041500000000001       3.1758400126763298       0.4855327571677466
0.9041600000000001       3.175863678064705        0.4855359375414358
0.90417                  3.175887343456267        0.485539117915557
0.9041800000000001       3.175911008851015        0.48554229829011003
0.90419                  3.17593467424895         0.48554547866509495
0.9042000000000001       3.1759583396500717       0.4855486590405118
0.9042100000000001       3.1759820050543794       0.4855518394163605
0.90422                  3.176005670461874        0.48555501979264104
0.9042300000000001       3.1760293358725544       0.4855582001693535
0.90424                  3.1760530012864217       0.4855613805464979
0.9042500000000001       3.1760766667034757       0.48556456092407413
0.9042600000000001       3.176100332123716        0.4855677413020822
0.9042700000000001       3.1761239975471427       0.4855709216805223
0.9042800000000001       3.176147662973756        0.4855741020593942